40
Lattice="8.41010517 0.0 0.0 0.0 8.41010517 0.0 0.0 0.0 8.41010517" Properties=species:S:1:pos:R:3:forces:R:3 pol="195.080966 -0.1524672 -0.0375876 -0.15303840000000002 194.80266919999997 -0.1499536 -0.0368204 -0.1485236 195.09368519999998" energy=-263.77649366 stress="0.003389742984321046 0.00015988576831940752 0.0011950634188158042 0.00015988576831940752 0.005346404190895556 0.0001048501568548166 0.0011950634188158042 0.0001048501568548166 -0.001237043815438004" free_energy=-263.77649366 pbc="T T T"
Ba       8.27492358       8.40158329       8.39633388       0.51896344       0.05559669       0.00360623
Ba       0.04574298       8.39308934       4.18988563      -0.30252059      -0.12284267       0.06200908
Ba       0.04723670       4.16525210       0.04618964      -0.25690089       0.16122679      -0.03712760
Ba       0.08527889       4.15401738       4.24026443      -0.54209063       0.48002994      -0.34017887
Ba       4.27582084       0.02317741       8.37840328      -0.69923233       0.01573731       0.15162557
Ba       4.27710810       0.01581428       4.27402890      -0.43870032      -0.27133309      -0.32294344
Ba       4.25133743       4.23825063       8.32983492      -0.38759567      -0.32154894       0.43055280
Ba       4.18432832       4.33466341       4.21044657      -0.03782231      -0.50950388      -0.07095583
Zr       2.02412754       2.08213111       2.08185156       1.07674021       0.41060198      -0.01344685
Zr       2.01488333       2.14227110       6.28185447       0.48193726      -0.59179524       0.97571207
Zr       2.13944287       6.33006102       2.10323636      -0.21866910      -0.06254213       0.33714714
Zr       2.07723938       6.36784039       6.38082366       0.32681741      -0.07407488      -0.41924727
Zr       6.25636605       2.06930234       2.05899424      -0.27141803       0.44186569       0.33029660
Zr       6.21574515       2.05826811       6.24025784       0.65948207      -0.03950038       0.45238719
Zr       6.32370626       6.28275250       2.07373026       0.56422647      -0.15345810       0.61969374
Zr       6.32986221       6.22517776       6.33147157      -0.31017084       0.86147197      -0.89348618
O        1.92181542       2.04611795       0.03530150       0.31401175       0.04323374      -0.19933952
O        2.10364416       0.04830243       2.27441732      -0.17944452      -0.63054229      -0.02048733
O        8.35820557       2.19348385       2.10320499       0.22182346       0.00744814       0.05290255
O        1.96130936       2.20407352       4.27105988       0.07512024      -0.02899503      -0.96375915
O        2.26690491       0.02301501       6.26964930      -0.12138583      -0.17589095       0.04681892
O        8.36681802       1.83259968       6.37024922      -0.56270911       0.55622670      -0.38068173
O        2.06048990       6.34417688       0.06512903       0.18736739       0.14429888      -0.41519331
O        2.30527114       4.23018946       2.07883612      -0.46489125       0.13907936       0.10622471
O        0.02112383       6.29429352       2.03369110       0.43575882      -0.13589445       0.28999727
O        2.08736111       6.20157211       4.27781295      -0.02590897       0.18225851      -0.70480346
O        1.99330215       4.22524609       6.39526230      -0.25318811      -0.09264874       0.13823661
O        8.38962631       6.46774227       6.40307890       0.31799393      -0.08337358      -0.33899194
O        6.18294415       2.12547217       8.37187906       0.32766509      -0.06838391       0.22978718
O        6.45790555       8.38630466       2.11374966      -0.19186168       0.12202147      -0.47510755
O        4.16179420       2.07247068       2.03050804       0.29355832      -0.17850804       0.29449518
O        6.26378267       1.89352786       4.18175458       0.00914229       0.40636246       0.22603725
O        6.07818157       8.35083310       6.43108068       0.30122167       0.48573836      -0.19746170
O        4.13684907       2.21590738       6.28573430       0.36141732       0.05762500      -0.04548046
O        6.35504812       6.14265444       8.34328394      -0.18526246       0.16808497       1.52272784
O        6.33768049       4.18768000       2.18972554      -0.32297756       0.02901687      -0.03026124
O        4.29579627       6.49062498       1.96746068      -0.90312198      -0.33426628       0.40388820
O        6.30393789       6.32030648       4.24560712      -0.01189973       0.03666492      -0.85421897
O        6.40922812       4.17898050       6.24091206       0.04813581      -0.84900935      -0.12062478
O        4.17432837       6.18349114       6.31721837       0.16638896      -0.08047780       0.16965108

