5
Time=100.00000000 pbc="T T T" Lattice="5.90720783 0.00000000 0.00000000 0.00000000 5.92291775 0.00000000 0.00000000 0.00000000 5.91333600" energy=-178.68037796 virial="0.22287970 0.02001727 -0.00334888 0.02001727 0.77696206 0.03210886 -0.00334888 0.03210886 0.42979284" stress="0.00151458 0.00009675 -0.00001619 0.00009675 0.00419269 0.00015520 -0.00001619 0.00015520 0.00251468" Properties=species:S:1:pos:R:3:vel:R:3:forces:R:3
Br 2.85069062 3.16412559 0.10015715 -0.00099163 0.00240917 -0.00074589 0.06469606 -0.02393301 -0.30580203
Br 2.78351600 0.13438752 3.09016887 -0.00181365 -0.00153297 0.00161662 0.06237236 -0.44712188 -0.01219317
Br 0.06703060 3.07826361 3.06779013 0.00042683 0.00140990 0.00130210 -0.07031014 -0.02139279 -0.02548080
Cs 0.00000548 -0.17845806 -0.13724131 0.00005342 -0.00206399 -0.00158283 0.00988524 0.03351846 0.03062870
Pb 3.03303030 2.90090337 2.91173946 0.00088296 0.00044231 0.00017736 -0.06664352 0.45892922 0.31284730
5
Time=200.00000000 pbc="T T T" Lattice="5.92077981 0.00000000 0.00000000 0.00000000 5.93135424 0.00000000 0.00000000 0.00000000 5.92071694" energy=-178.55875778 virial="0.88318393 0.02911821 -0.07574919 0.02911821 0.70390086 0.30521005 -0.07574919 0.30521005 0.55685719" stress="0.00470353 0.00014004 -0.00036431 0.00014004 0.00384127 0.00146790 -0.00036431 0.00146790 0.00313407" Properties=species:S:1:pos:R:3:vel:R:3:forces:R:3
Br 2.82833986 3.36402694 -0.05288750 0.00074319 0.00147118 -0.00147876 0.17737126 -0.26156576 0.32474329
Br 2.68276555 -0.10542433 3.22228593 -0.00014934 -0.00207247 0.00085000 0.20961628 0.49144910 -0.20201703
Br 0.05938847 3.17009013 3.15119516 -0.00071959 -0.00007003 -0.00006016 -0.06245437 -0.26342363 -0.23634151
Cs -0.00157332 -0.36337864 -0.27334998 -0.00025196 -0.00185628 -0.00122965 -0.09019863 0.25462016 0.23631100
Pb 3.09648233 3.00696895 2.98148762 0.00021011 0.00144956 0.00105441 -0.23433454 -0.22107987 -0.12269575
5
Time=300.00000000 pbc="T T T" Lattice="5.95837522 0.00000000 0.00000000 0.00000000 5.96988957 0.00000000 0.00000000 0.00000000 5.95146561" energy=-178.62133789 virial="0.78298541 0.23447513 -0.05934139 0.23447513 0.32627427 0.29936297 -0.05934139 0.29936297 0.36567398" stress="0.00416672 0.00110760 -0.00028031 0.00110760 0.00200933 0.00141411 -0.00028031 0.00141411 0.00219545" Properties=species:S:1:pos:R:3:vel:R:3:forces:R:3
Br 3.03233827 3.40878035 5.97463791 0.00166016 -0.00108012 0.00261454 -0.07781272 -0.19697276 0.20419392
Br 2.78706077 5.99183337 3.21985606 0.00131865 0.00379707 -0.00096122 0.08896038 0.23898980 -0.07580877
Br -0.01760271 3.01180519 3.00240111 0.00010441 -0.00241683 -0.00230322 0.16762743 -0.07314428 -0.08843796
Cs 5.89526869 5.45480095 5.60286306 -0.00046458 -0.00037418 0.00003688 0.10192044 0.28428928 0.16113166
Pb 3.08004900 3.13307353 3.08597552 -0.00089100 0.00012427 0.00022697 -0.28069552 -0.25316205 -0.20107885
5
Time=400.00000000 pbc="T T T" Lattice="5.96318257 0.00000000 0.00000000 0.00000000 5.97281799 0.00000000 0.00000000 0.00000000 5.95357259" energy=-178.57858276 virial="-0.27818593 0.13427085 0.03597178 0.13427085 0.41538199 -0.04718757 0.03597178 -0.04718757 0.10467572" stress="-0.00082426 0.00063321 0.00016964 0.00063321 0.00244655 -0.00022253 0.00016964 -0.00022253 0.00098129" Properties=species:S:1:pos:R:3:vel:R:3:forces:R:3
Br 3.11659198 3.23470804 0.24564813 0.00018463 -0.00244613 0.00116995 -0.08675128 0.02882043 -0.39569153
Br 2.94836200 0.32900463 3.12989956 0.00214783 0.00144819 -0.00078087 0.02215765 -0.58525757 0.08533781
Br 0.04038147 2.81328448 2.79776135 0.00071632 -0.00157664 -0.00188487 -0.06351006 0.18166363 0.13856935
Cs 5.90372236 5.51671287 5.64939438 0.00051445 0.00159312 0.00087149 0.07880171 0.17431761 0.07184659
Pb 2.96491176 3.12310457 3.08715850 -0.00150571 -0.00002903 0.00001783 0.04930197 0.20045589 0.09993777
5
Time=500.00000000 pbc="T T T" Lattice="5.95540826 0.00000000 0.00000000 0.00000000 5.96946951 0.00000000 0.00000000 0.00000000 5.95067512" energy=-178.61794281 virial="-0.53297791 0.11873431 0.08124316 0.11873431 -1.04727252 -0.10014616 0.08124316 -0.10014616 -0.68562488" stress="-0.00201022 0.00056125 0.00038403 0.00056125 -0.00444127 -0.00047339 0.00038403 -0.00047339 -0.00273177" Properties=species:S:1:pos:R:3:vel:R:3:forces:R:3
Br 3.09759350 3.01206262 0.13688797 -0.00042170 -0.00144239 -0.00262952 -0.05910656 0.09846433 -0.13322393
Br 3.18023822 0.15992372 3.09887260 0.00189956 -0.00356149 0.00018375 -0.09729818 -0.13582419 0.04925324
Br 0.05584879 2.75242963 2.68294237 -0.00069566 0.00043747 -0.00015882 -0.18114011 0.14288474 0.13980334
Cs 5.96420243 5.73684456 5.76923092 0.00059789 0.00238337 0.00137620 -0.03438385 0.07091839 0.06810377
Pb 2.82618744 3.15132299 3.10405198 -0.00068515 0.00023220 0.00012168 0.37192870 -0.17644328 -0.12393642
5
Time=600.00000000 pbc="T T T" Lattice="5.94103581 0.00000000 0.00000000 0.00000000 5.96061918 0.00000000 0.00000000 0.00000000 5.94671143" energy=-178.62892914 virial="-0.58109862 0.08735352 0.05211053 0.08735352 0.15626692 -0.03304379 0.05211053 -0.03304379 0.23112153" stress="-0.00222748 0.00041481 0.00024745 0.00041481 0.00127401 -0.00015691 0.00024745 -0.00015691 0.00162946" Properties=species:S:1:pos:R:3:vel:R:3:forces:R:3
Br 3.00915493 2.90492279 5.85795506 -0.00122528 -0.00089637 -0.00094959 -0.06670570 -0.01032760 0.33902371
Br 3.29136916 5.83281014 3.12309833 0.00057529 -0.00100564 0.00019882 -0.10406069 0.44486004 -0.02790143
Br 5.84021492 2.85665809 2.73483941 -0.00196504 0.00152848 0.00106836 0.07228542 0.02444119 0.05255799
Cs 0.05133983 5.98008675 5.91999939 0.00025980 0.00269250 0.00171978 -0.05029207 0.02130931 0.02338004
Pb 2.83783498 3.09386684 3.05895195 0.00084181 -0.00158302 -0.00122560 0.14877304 -0.48028294 -0.38706032
5
Time=700.00000000 pbc="T T T" Lattice="5.93791417 0.00000000 0.00000000 0.00000000 5.94994766 0.00000000 0.00000000 0.00000000 5.94565134" energy=-178.69824600 virial="0.01335624 0.06294976 -0.07327301 0.06294976 -0.74104814 0.14985868 -0.07327301 0.14985868 -0.31117944" stress="0.00061737 0.00029967 -0.00034882 0.00029967 -0.00297397 0.00071340 -0.00034882 0.00071340 -0.00092758" Properties=species:S:1:pos:R:3:vel:R:3:forces:R:3
Br 2.85886006 2.81208515 5.91219696 -0.00167599 -0.00080984 0.00121191 -0.01537762 0.01820662 -0.03344851
Br 3.26294419 5.89996130 3.11560018 -0.00116860 0.00152353 -0.00040775 -0.13814187 -0.02246197 -0.06383395
Br 5.78835090 2.98307391 2.84329339 0.00145728 0.00106648 0.00103584 0.31208810 -0.02065611 0.00157137
Cs 0.05638988 6.21195017 6.07522337 -0.00016453 0.00212505 0.00137255 -0.06389281 -0.06578639 -0.03824523
Pb 2.91954892 2.88588492 2.89750812 0.00064054 -0.00204958 -0.00158998 -0.09467580 0.09069786 0.13395632
5
Time=800.00000000 pbc="T T T" Lattice="5.94144254 0.00000000 0.00000000 0.00000000 5.96054032 0.00000000 0.00000000 0.00000000 5.95516970" energy=-178.59028625 virial="0.13667205 0.26372288 -0.03551812 0.26372288 0.80835901 0.17632775 -0.03551812 0.17632775 0.30135077" stress="0.00122008 0.00125049 -0.00016842 0.00125049 0.00440500 0.00083609 -0.00016842 0.00083609 0.00200094" Properties=species:S:1:pos:R:3:vel:R:3:forces:R:3
Br 2.70058934 2.75071880 -0.02327272 -0.00120242 -0.00043275 -0.00164753 0.19327302 0.07315406 -0.23673136
Br 3.07584827 -0.02607498 3.03955937 -0.00246879 -0.00213952 -0.00122391 0.01767815 -0.38100158 -0.04001615
Br 6.05776995 3.09233418 2.96692375 0.00295828 0.00098389 0.00140714 -0.23863292 -0.06469856 -0.01955505
Cs 0.00653399 0.46152761 0.26541687 -0.00095269 0.00181762 0.00139408 -0.10198570 -0.20152997 -0.07508315
Pb 2.98530199 2.73959288 2.79652349 0.00088602 -0.00055335 -0.00032953 0.12966745 0.57407605 0.37138572
5
Time=900.00000000 pbc="T T T" Lattice="5.94880650 0.00000000 0.00000000 0.00000000 5.96569821 0.00000000 0.00000000 0.00000000 5.95253834" energy=-178.49623489 virial="-0.03738142 0.22363833 0.06820539 0.22363833 -0.14830173 0.13502869 0.06820539 0.13502869 -0.26705899" stress="0.00041452 0.00105865 0.00032287 0.00105865 -0.00011055 0.00063919 0.00032287 0.00063919 -0.00067272" Properties=species:S:1:pos:R:3:vel:R:3:forces:R:3
Br 2.73809950 2.73822670 5.72338472 0.00219287 -0.00012603 -0.00137592 0.24373220 -0.04631535 0.30917245
Br 2.84763515 5.64403476 2.85076642 -0.00183466 -0.00212485 -0.00281302 0.18729359 0.45419102 -0.10536396
Br 0.20690331 3.13942159 3.08420221 -0.00175220 -0.00043913 0.00070833 -0.42117165 -0.19511155 -0.13076205
Cs 5.81589441 0.57495086 0.38841455 -0.00172423 0.00035407 0.00103022 0.05461217 -0.25450406 -0.13030129
Pb 3.11988217 2.77205582 2.82227192 0.00164356 0.00081025 0.00068143 -0.06446632 0.04173994 0.05725486
5
Time=1000.00000000 pbc="T T T" Lattice="5.97876222 0.00000000 0.00000000 0.00000000 5.96728111 0.00000000 0.00000000 0.00000000 5.96287703" energy=-178.48489380 virial="2.40643739 -0.37731460 -0.15986906 -0.37731460 -0.37276558 0.21186009 -0.15986906 0.21186009 0.52821198" stress="0.01191953 -0.00177364 -0.00075150 -0.00177364 -0.00114467 0.00099589 -0.00075150 0.00099589 0.00309056" Properties=species:S:1:pos:R:3:vel:R:3:forces:R:3
Br 3.04777178 2.70488528 5.78608142 0.00299333 -0.00027136 0.00219773 -0.12773681 0.08709938 0.14749140
Br 2.76944507 5.71826921 2.52699798 -0.00016948 0.00308887 -0.00338151 0.11003154 0.18658148 0.11306859
Br -0.05345299 3.01036445 3.11542043 -0.00090011 -0.00167102 0.00017585 0.72206671 0.02770835 0.02908089
Cs 5.71422659 0.51605005 0.43994732 -0.00063832 -0.00164729 -0.00009157 0.25653058 -0.28489121 -0.17469719
Pb 3.24197501 2.84584855 2.89100032 -0.00033243 0.00061451 0.00044743 -0.96089202 -0.01649800 -0.11494368
