 -1.1463882e+00   5.5112619e-02
  3.0352095e-01   8.8658080e-02
 -1.1614801e-01   4.9910877e-02
 -9.7154249e-03   7.0895538e-02
 -5.5565417e-01   1.0455472e-01
  1.2535074e-01   1.5842816e-01
 -1.6098019e-02   8.4066108e-02
 -2.9504535e-01   6.5194644e-02
  4.2607191e-01   8.7750971e-02
  3.5180636e-02   6.5167665e-02
 -4.8132978e-02   4.5882922e-02
 -4.9902042e-03   1.2880886e-03
  3.0745281e-04   2.4993906e-03
  8.2172930e-02   1.0245179e-03
 -2.4872112e-01   1.0462790e-01
  5.2483147e-01   3.0574787e-02
  2.6963355e-02   9.9297322e-02
 -1.4427914e-01   3.9881203e-02
  4.2940670e-01   8.6678982e-02
 -4.6354300e-01   9.0604864e-02
 -2.8643361e-01   2.2560060e-02
 -3.7473631e-01   1.3360500e-02
 -5.2795309e-01   6.9473341e-02
 -1.3309330e+00   9.2212530e-03
  3.1960556e-01   9.3323842e-02
  5.4340309e-01   3.9311214e-03
  5.0882891e-02   6.8188891e-02
 -9.7073138e-02   4.3476470e-02
  3.5001174e-01   5.4762829e-02
 -3.3977863e-01   7.0828117e-02
  6.9173262e-02   7.6700948e-02
 -4.8245944e-02   7.0972160e-02
 -4.7261328e-01   7.0810407e-02
 -5.4624116e-01   8.4372945e-02
  1.8524987e-01   6.3070893e-02
 -6.0839444e-01   7.8103200e-02
  6.6426742e-01   1.4402333e-01
 -4.0657139e-01   1.2673587e-01
 -6.1697923e-02   6.8215325e-02
 -8.2705784e-01   1.6628793e-01
 -8.2272530e-02   5.0893243e-02
 -1.0143709e+00   6.5592453e-02
  8.4129626e-01   8.3985910e-02
 -2.7171510e-01   1.1474977e-01
 -3.8591269e-02   2.0386119e-01
 -1.2807782e+00   1.6584560e-01
 -6.4391859e-02   5.8565009e-02
 -5.8422369e-01   8.3559483e-02
 -4.5500249e-01   1.6143791e-01
 -3.0063954e-01   1.4479473e-01
  1.5058132e-01   2.3777001e-02
 -4.3570146e-02   2.5772709e-01
  3.9635748e-01   1.8448529e-01
 -1.1336803e-01   1.3663317e-01
  1.9937767e-01   5.2576393e-02
  1.1430006e-01   5.3971328e-02
  2.7994591e-01   2.1236385e-01
  4.2324301e-02   5.3517118e-02
 -3.5269266e-01   6.3087858e-02
  2.1139225e-01   7.9965532e-02
  3.3935279e-01   5.6565899e-02
  4.9992490e-01   1.1097085e-01
  1.7373464e-01   7.2630487e-02
 -5.8755630e-01   1.0856241e-01
 -4.1236680e-02   1.6140921e-01
  1.1268318e-02   1.5539004e-01
 -7.6772380e-01   6.5222211e-02
  1.1014453e-01   1.5175556e-01
 -3.7516856e-01   9.5685162e-02
  2.9027551e-01   1.3404705e-01
 -2.9486971e-02   8.7653175e-02
 -6.4949530e-01   8.0064118e-02
 -2.2584744e-01   1.9428383e-01
  3.7036040e-01   6.1788812e-02
  1.0986146e-01   9.2700087e-02
  3.2623214e-01   1.5938294e-01
  1.0189811e-01   1.6207543e-01
  4.3736154e-01   6.8783879e-02
 -1.5295532e-01   5.5189319e-02
 -1.8731833e-01   1.2153481e-01
  9.7393370e-01   6.4005576e-02
  3.2613579e-02   8.4975228e-02
 -2.0902015e-01   1.5538953e-01
 -1.3138188e-01   7.5346015e-02
  4.6452048e-01   8.8349640e-02
 -8.0326006e-02   7.5629920e-02
 -4.0945232e-01   3.0866016e-02
  4.2868936e-01   8.6783946e-02
  3.3300167e-01   6.6583604e-02
  3.8051116e-01   6.9584049e-02
 -5.5666411e-01   9.1211647e-02
 -3.2816592e-01   1.1192730e-01
 -9.5606744e-02   4.3401603e-02
  1.1730555e-02   1.6171546e-01
 -2.9638991e-01   4.3060310e-02
  1.2782696e-01   3.7192807e-02
  3.4876579e-01   5.7907347e-02
 -5.1555842e-01   1.6521920e-01
  2.4743685e-01   4.4622377e-02
 -2.4299556e-03   4.7640573e-02
 -2.4142319e-01   2.2266047e-01
 -1.0004883e+00   7.1798198e-02
  1.1285486e-01   9.2311770e-02
  3.8694987e-01   8.4198326e-02
 -2.8864849e-01   8.7452643e-02
  9.6906817e-01   7.6077715e-02
 -5.9992470e-02   7.2407335e-02
 -5.9435040e-02   8.9342661e-02
  3.8793910e-01   1.5893111e-01
  1.3938808e-01   9.8790787e-02
 -3.8795173e-02   4.6637762e-02
 -2.1219056e-02   8.8489033e-02
  1.9621523e-03   6.5050885e-02
 -4.0457040e-01   2.5512949e-01
  1.5560006e-01   1.2528145e-01
  6.4463317e-02   7.5769663e-02
 -9.4651245e-05   6.7827158e-02
 -1.1589587e-02   5.0779622e-02
 -1.0699533e+00   7.5044207e-02
  1.4974777e-01   4.9754910e-02
  2.9615006e-01   9.6922584e-02
 -6.8006462e-01   1.2555464e-01
  1.8205091e-01   1.2481197e-01
  1.4096171e-01   6.2745519e-02
  5.4549229e-01   6.1301216e-02
 -8.5136995e-02   9.1419853e-02
 -5.1924707e-03   3.9150670e-02
  4.9989483e-01   6.3771114e-02
 -5.3405821e-01   7.7320248e-02
  4.0586716e-01   6.8309754e-02
  1.7371121e-01   6.0680337e-02
  3.4302011e-01   9.6129753e-02
 -7.8120336e-02   2.0432657e-01
 -3.5328430e-01   1.3952653e-01
  7.7610195e-01   3.2917246e-02
 -1.6352153e-01   1.6171472e-01
  3.5854596e-01   1.2179367e-01
  2.6116875e-01   1.7899677e-01
 -1.8635955e-01   6.1612070e-02
  2.5665256e-01   8.1144527e-02
  2.0730114e-01   1.4022346e-01
  1.6540988e-01   1.3420700e-01
  2.7759764e-02   1.0683294e-01
  1.1275496e-02   1.4685124e-01
 -9.8464143e-01   1.4942165e-01
 -6.2056839e-01   5.6432039e-02
  2.8101242e-01   1.0581685e-01
 -8.3936024e-01   1.0410187e-01
 -3.4644258e-01   3.8925145e-02
 -1.8576036e-01   6.1614893e-02
 -1.7397302e-01   6.7786582e-02
  4.3403816e-01   7.7658825e-02
  7.9664715e-02   4.9466506e-02
  5.5944704e-02   4.5450404e-02
  8.0926511e-03   5.9728283e-02
 -2.2548212e-01   9.2768498e-02
 -4.2647439e-01   5.2533269e-02
 -8.5064946e-03   9.6723124e-02
  1.5127699e-01   2.1061795e-02
 -1.0164065e+00   1.6863738e-01
 -2.1370538e-02   1.9405565e-01
 -2.5302687e-01   1.6115575e-01
  3.7413868e-01   1.0356867e-01
 -5.6356747e-02   9.5588632e-02
  2.1692023e-01   1.1286881e-01
 -2.7660534e-01   8.9873068e-02
 -2.4390392e-01   2.1989184e-02
 -9.7544420e-01   5.2012466e-02
 -3.5043994e-01   1.6481255e-01
 -1.3227670e-01   1.6328469e-01
 -4.0363532e-01   2.3937440e-02
  1.7370531e-01   1.3606878e-01
  5.7265574e-01   1.0976271e-01
  7.6042339e-02   6.4999357e-02
  6.2279660e-01   1.4330197e-02
 -4.0011263e-01   1.1566865e-01
  2.6037866e-01   8.1795678e-02
  1.2299055e-02   1.4768320e-01
  6.3961673e-01   1.3452859e-02
 -5.7460714e-02   1.2227751e-01
 -2.7556039e-02   1.8413004e-01
 -2.0766871e-01   7.5509809e-02
  1.2762019e-01   8.8631706e-03
  4.8044622e-02   1.2494217e-01
  3.4885311e-01   8.9701489e-02
 -8.2613483e-02   6.7747436e-02
 -1.0358567e+00   1.5078928e-02
 -1.6582127e-01   1.8855482e-01
 -8.0666542e-02   1.7252456e-01
  1.5016443e+00   4.3618083e-02
  1.0689993e-01   1.6150713e-02
 -4.2035833e-01   1.2497512e-01
  8.5844493e-01   6.8327695e-02
  8.3313745e-01   1.0538337e-01
 -9.4691736e-01   2.0710882e-02
 -8.5586607e-02   5.0110783e-02
 -8.2442611e-01   8.7767586e-02
  4.9527973e-01   5.6244783e-02
 -1.5329432e+00   2.6958985e-02
  2.2870022e-01   2.1382315e-01
  8.6181015e-01   1.0865766e-01
 -1.1547869e+00   9.7567081e-02
 -7.5277257e-01   6.2119085e-03
  8.3925986e-01   9.7232983e-02
  5.4750222e-01   6.3195482e-02
  7.3446259e-02   1.6970365e-01
  1.1674467e-01   7.0378799e-03
  1.9351752e-01   7.4036919e-02
 -2.6136777e-01   8.3801500e-02
  8.8049792e-02   7.8734986e-02
 -1.8642904e-01   3.9460190e-02
  1.8073402e-02   7.0070967e-02
 -5.0264150e-01   1.1203203e-01
 -6.3515894e-02   8.9748241e-02
  9.6895434e-02   1.6686396e-01
  5.1878527e-02   3.0958959e-01
 -8.1370842e-01   7.3145159e-02
  2.1340518e-01   4.6262868e-02
  2.3247992e-01   3.6613554e-02
 -9.2713699e-02   2.9377207e-01
  3.3077851e-01   7.3073655e-02
 -1.4796025e-01   1.0458387e-01
 -8.8427120e-01   5.4471251e-02
 -5.8714801e-01   1.0018887e-01
 -4.3864435e-01   1.2739071e-01
 -1.2259376e-01   1.2768237e-01
  3.9112335e-01   4.7446232e-02
 -2.0138729e-01   4.7278129e-02
  4.7612554e-01   5.0632462e-02
 -1.4680311e-01   1.1605182e-01
 -4.1140128e-02   3.6611870e-02
 -5.3233421e-01   5.0709877e-02
 -1.4556635e-02   1.2505814e-01
  3.8706398e-01   1.0266148e-01
 -3.6516196e-01   3.3207979e-02
 -8.7529576e-01   9.8035678e-02
 -2.1247919e-01   1.3487197e-01
  3.9284578e-01   1.8011968e-01
 -5.8719326e-02   1.7310109e-02
 -2.9749292e-01   7.0737734e-02
 -8.5021204e-01   1.5496036e-01
 -2.5018429e-02   8.2157083e-02
 -2.6365143e-01   2.9944591e-02
  2.0828585e-01   9.2139408e-02
 -5.5696744e-01   1.3083608e-01
 -4.9703944e-01   1.0671352e-01
  4.0265477e-01   2.7157735e-02
 -5.5941939e-01   5.5603702e-02
  3.6672689e-05   4.1938346e-02
 -3.4593355e-02   1.8011993e-01
  4.5210871e-01   6.0310356e-02
  3.5107471e-02   1.3845888e-01
  1.1142327e-02   8.5643895e-02
 -3.1659314e-01   8.6411841e-02
 -1.8638244e-01   3.6247153e-02
 -7.3999113e-01   9.6639536e-02
 -6.4411151e-01   1.7887047e-01
  1.3888517e-01   7.6003291e-02
 -6.7866579e-02   1.6404534e-02
  3.6438785e-02   9.3802303e-02
  2.3142274e-01   1.6101912e-01
 -5.5660337e-02   9.3369797e-02
 -2.4429713e-01   2.5962003e-02
 -5.9510696e-01   7.3030837e-02
  4.6721771e-01   1.1135799e-01
 -4.2409927e-01   9.5576577e-02
  5.8193430e-03   1.5474674e-01
  2.0384938e-01   9.1022946e-02
  2.3496839e-01   1.1421801e-01
  2.7827027e-01   1.3012420e-01
 -3.2370490e-01   2.3305384e-02
 -4.0067083e-01   7.3324971e-02
 -5.0823946e-02   8.0640122e-02
 -4.1807324e-01   5.3792134e-02
  1.6452688e-01   3.8686842e-02
  3.7637022e-01   1.0206357e-01
 -2.0278824e-02   9.4720356e-02
 -4.1526142e-01   9.0691574e-02
 -5.8274716e-01   1.7061966e-02
  4.1206217e-01   6.5935276e-02
 -2.2538836e-01   1.5068260e-01
  4.6502000e-01   1.5780234e-01
 -7.9755541e-03   3.0920221e-02
 -4.0118596e-01   9.9525563e-02
  8.9260745e-01   1.1684721e-01
 -3.7178636e-01   2.2624792e-01
 -1.0107664e+00   1.5510499e-02
  4.5287192e-01   1.1747809e-01
  1.1602229e+00   1.4208949e-01
 -5.1948838e-02   1.6325043e-01
  3.4009889e-02   2.8279722e-02
 -1.5385763e-01   1.0800251e-01
  5.1226926e-01   7.0195496e-02
  3.5216391e-01   7.4450277e-02
  7.6510209e-01   2.4310594e-02
 -3.7428483e-01   8.7984137e-02
 -3.1912398e-01   3.8183529e-02
  1.0017258e+00   7.2858818e-02
  5.4939801e-01   4.1547574e-02
  1.8575361e-01   6.3883670e-02
  1.6079085e-01   1.1960804e-01
  6.1970359e-01   3.4378134e-02
 -6.5611613e-01   4.9884118e-02
 -6.4365387e-01   1.3858047e-01
 -3.0849299e-01   6.0277265e-02
 -3.5233873e-01   7.3277853e-02
  2.9324326e-01   1.6517716e-02
  7.5295113e-02   1.6947287e-01
 -1.7533043e-01   2.2302161e-01
  4.3022001e-01   1.2270788e-01
 -3.7730312e-01   1.7388472e-02
 -4.8752792e-02   1.2980698e-01
 -5.9314638e-01   1.0205168e-01
