2
Lattice="0.0 3.5 3.5 3.5 0.0 3.5 3.5 3.5 0.0" Properties=species:S:1:pos:R:3:forces:R:3:energies:R:1 energy=4.6896066939306715 stress="0.049560479551314235 -0.0 -0.0 -0.0 0.049560479551314235 -0.0 -0.0 -0.0 0.05145975941702539" free_energy=4.6896066939306715 pbc="T T T"
Au       0.00000000       0.00000000       0.10000000       0.00000000       0.00000000       0.27559604       2.46563024
Cu       3.50000000       0.00000000       0.00000000       0.00000000       0.00000000      -0.27559604       2.22397646
2
Lattice="0.0 3.5 3.5 3.5 0.0 3.5 3.5 3.5 0.0" Properties=species:S:1:pos:R:3:forces:R:3:energies:R:1 energy=4.672281086434657 stress="0.04880934798127037 -0.0 -0.0 -0.0 0.04880934798127037 -0.0 -0.0 -0.0 0.05305338176941498" free_energy=4.672281086434657 pbc="T T T"
Au       0.00000000       0.00000000       0.15000000       0.00000000       0.00000000       0.41820970       2.45425099
Cu       3.50000000       0.00000000       0.00000000       0.00000000       0.00000000      -0.41820970       2.21803009
