 -3.2529894e-01   7.3994026e-02
  5.0900459e-01   6.5783814e-02
 -1.8419769e-01   4.5365240e-02
 -5.3149515e-01   1.0587400e-01
  6.0967243e-01   7.0134535e-02
 -2.2162145e-01   7.4906640e-02
 -6.9252878e-02   6.9700174e-02
  2.2756547e-02   4.7425490e-02
  2.1932808e-01   1.2630084e-01
  2.9450315e-01   7.8707442e-02
  1.0007134e-01   1.3409385e-01
 -1.9742972e-01   1.1789717e-01
  4.7944066e-01   1.5490104e-01
 -5.8692753e-01   1.3038404e-01
  1.3793743e-01   1.1571225e-01
 -1.2340826e-01   9.5941193e-02
  1.8505619e-01   6.3458890e-02
 -5.0630078e-02   5.5179659e-02
 -1.4038743e-01   6.3797168e-02
 -3.2917481e-02   6.8358019e-02
 -6.3053238e-01   7.3305435e-02
  1.7898794e-02   1.3626248e-01
  2.6128584e-01   7.9601392e-02
  5.5917561e-01   1.0490958e-01
 -7.8004748e-02   1.2753034e-01
  9.1637325e-01   3.0032156e-02
  4.9234123e-04   1.5747300e-03
 -5.5821333e-03   1.5274389e-03
 -3.0218245e-02   4.4897609e-04
 -3.7928635e-01   8.3786482e-03
 -8.7400742e-02   6.6044763e-02
  1.0057912e-01   2.4519670e-03
  1.2208661e-03   3.5468765e-02
 -4.2056268e-01   1.7330039e-02
  2.4996405e-02   1.2692499e-01
  5.1520920e-01   6.2422440e-03
  3.5664570e-02   3.8837612e-02
  3.6990847e-02   4.5118477e-02
  2.9090962e-01   4.7117587e-02
 -1.7268941e-01   6.2972069e-02
  5.5783149e-02   1.0971657e-01
 -5.2107416e-02   1.6534792e-01
 -2.4108322e-01   1.5781853e-01
 -1.0121602e-01   1.0399977e-01
 -1.4077811e-01   7.6306127e-02
 -8.8845722e-02   7.0608929e-02
 -1.4208657e-01   1.8947192e-01
 -5.5052572e-01   6.9391541e-02
  7.2047061e-01   5.7715522e-03
 -2.4931859e-02   1.0049026e-01
 -5.7954109e-01   3.1002171e-03
  4.3836184e-02   7.0312634e-02
  9.2492811e-02   3.7699401e-02
 -7.1986973e-02   1.0041303e-01
  5.9428154e-03   9.6030869e-02
 -3.1432694e-01   3.0172406e-02
 -1.5210527e-01   2.0181660e-01
 -7.2240490e-01   6.8467751e-02
 -1.4966203e-01   1.1297382e-01
  2.4038345e-01   1.8899044e-01
 -2.2468071e-03   1.0426515e-01
 -1.1906447e-01   9.5155798e-02
 -1.6528885e-01   5.9098549e-02
 -8.4920954e-03   6.6876017e-02
  4.2249215e-01   4.8577093e-02
  7.1075588e-02   1.5232828e-01
  3.8515353e-01   6.9728486e-02
 -4.6206528e-01   1.2292967e-01
 -1.2663098e-01   1.8957601e-01
 -6.3634455e-01   8.8155918e-02
  2.4635717e-03   6.8664655e-02
 -1.2473371e-02   3.5686828e-02
  2.3344514e-01   9.0865336e-02
  3.6403042e-01   1.1495486e-01
 -8.0500863e-02   1.2140382e-01
 -3.6232263e-02   6.2037602e-02
  4.3017963e-01   6.8991154e-02
 -6.4037248e-02   2.5677121e-01
 -1.5698172e-02   3.0898444e-02
  1.6607967e-01   5.7583448e-02
 -2.1825507e-02   8.7037571e-02
  6.7078218e-02   1.5511364e-01
 -2.4927344e-02   7.5366735e-02
  2.7817586e-01   4.8482295e-02
  1.2451883e-02   9.5233761e-02
  4.8134092e-02   4.8649792e-02
 -1.1887244e-01   7.5305462e-02
 -3.1266505e-01   5.4822918e-02
  5.0411165e-02   1.8241048e-01
  6.8701440e-01   5.3678114e-02
  1.6464308e-02   1.1967735e-01
  8.7064154e-02   3.2576919e-02
 -3.8529092e-01   1.6521206e-01
 -1.2292149e-01   1.6657767e-01
  3.3230656e-01   1.0941634e-01
  1.8376207e-01   6.4078160e-02
  4.9801537e-01   4.3981332e-02
 -1.1119108e-01   1.5960467e-01
  1.8623453e-01   5.4341529e-02
  2.4653466e-01   5.4196496e-02
 -2.3925003e-01   1.6500828e-01
 -1.3630679e-01   1.2923078e-01
 -2.0420974e-01   8.8751473e-02
  4.1441172e-02   1.1434010e-01
  4.0315367e-02   1.6680470e-01
 -2.8985009e-01   1.8523854e-01
  2.1603936e-01   9.7962879e-02
  5.4200310e-01   4.8558734e-02
 -3.5954952e-02   1.0918824e-01
 -1.0003698e+00   7.2449610e-02
 -1.2333965e-01   1.4564712e-01
 -5.0425444e-02   9.2848644e-02
 -3.2471696e-01   2.2848351e-01
  3.8291109e-01   8.1218705e-02
  1.8777601e-01   4.9502198e-02
 -4.4161475e-01   2.5453478e-02
  3.7302095e-01   6.4210214e-02
  1.6402189e-01   1.3389575e-01
 -1.0270549e-01   8.7127782e-02
 -8.1144415e-02   5.3899609e-02
 -2.9583248e-01   3.7912786e-02
  2.2725135e-01   1.3471282e-01
  1.3899516e-01   7.2082162e-02
 -3.7049428e-01   4.9819335e-02
  4.5379657e-01   4.5909632e-02
 -4.7712746e-01   5.6907568e-02
  1.1402007e-02   1.0518383e-01
 -3.6828017e-01   1.9531140e-02
  6.5250397e-02   2.4055675e-02
  2.9985690e-01   1.3326260e-01
 -7.3316269e-02   7.2446957e-02
  6.5564799e-01   1.3488013e-01
  5.3881668e-02   8.5206442e-02
 -1.6169804e-01   1.3268818e-01
 -8.4807009e-01   8.0328166e-02
 -3.8618949e-01   1.4629135e-02
 -1.3854747e-01   8.2477756e-02
 -2.3457004e-01   1.8502371e-01
  2.8359798e-01   1.6525769e-01
  5.5929226e-01   2.4803834e-02
  1.9991802e-01   2.2639482e-01
  1.0150405e-01   8.6608164e-02
  1.2221912e-01   8.9344651e-02
 -1.4220439e-01   9.1648027e-03
  9.7706503e-01   2.2683881e-02
 -1.4845437e-02   7.7423267e-02
  1.2411031e-01   6.1508521e-02
 -4.3670118e-01   1.6016513e-02
  2.0007576e-01   6.9851480e-02
  5.8733869e-01   8.5026883e-02
 -1.9526608e-01   1.4184791e-01
  2.6285771e-01   1.1202316e-02
 -3.6048609e-01   8.3702452e-02
  2.8860894e-01   1.2374906e-01
 -1.7924900e-01   1.0623465e-01
 -6.9892853e-01   9.5209284e-03
 -3.5131231e-01   1.1230854e-01
  1.9683973e-01   8.8066213e-02
 -8.3739184e-02   6.7742474e-02
  3.1874219e-01   1.1476064e-02
  3.0047911e-01   1.1776931e-01
  1.4698830e-01   7.0974179e-02
 -5.5147314e-01   3.5949148e-02
 -2.5957131e-01   4.2291717e-03
  2.5199342e-01   5.9976850e-02
  4.0983345e-02   1.6018181e-01
 -3.8555592e-01   1.0260234e-01
  3.7840433e-02   4.5070633e-02
 -3.1484053e-02   1.3270496e-01
 -2.2528881e-01   1.3749300e-01
  1.2362918e-01   9.6977882e-02
 -2.6730302e-04   3.9070621e-03
  7.0258491e-03   7.9389744e-02
  5.0755113e-02   1.2775151e-01
  1.5588699e-01   1.4958636e-01
  3.6922869e-01   1.1460751e-02
  2.4695547e-01   1.2162244e-01
  7.8193091e-02   1.0537501e-01
  5.4480437e-02   1.4721330e-01
  6.1328435e-01   4.7002314e-03
  1.5166996e-02   1.2969907e-01
 -3.0045573e-02   6.6499591e-02
  5.8435351e-01   6.7753859e-02
 -3.9716741e-01   5.6429189e-03
 -8.5783415e-02   8.9155234e-02
 -5.3748760e-02   9.8463565e-02
  9.0822935e-02   1.5786330e-01
 -3.9333910e-01   4.5015449e-03
  3.6418477e-01   5.8318671e-02
 -1.1196283e-01   9.5451087e-02
  1.8061011e-01   9.8083518e-02
  6.4729667e-01   3.8824887e-03
  4.5017800e-01   9.2713490e-02
 -4.0021041e-01   4.9689919e-02
 -3.4822100e-01   1.4488822e-01
  1.6149470e-01   6.2568374e-03
 -3.0621137e-02   1.3563049e-01
 -1.8151253e-01   1.0082136e-01
 -5.8850896e-02   9.9247873e-02
  2.1352524e-01   2.9932924e-02
 -3.2400936e-01   8.8097997e-02
  1.4982106e-01   8.3302066e-02
  2.5057733e-01   7.4156813e-02
 -1.1942402e-01   7.8536682e-02
 -1.2327513e-01   1.5726726e-01
 -2.9487893e-01   1.3695234e-01
 -1.7206666e-01   7.9642840e-02
 -3.8556877e-01   5.7142213e-02
 -7.1437404e-02   1.2014412e-01
 -7.9216994e-02   4.7013327e-02
 -2.0132212e-01   1.0913339e-01
 -1.3944116e-01   4.7140088e-02
  6.2445146e-01   5.5534717e-02
  1.3553386e-02   1.1188054e-01
  1.7817040e-01   6.0644463e-02
  2.7717754e-01   4.6336457e-02
 -4.8655022e-02   9.8385543e-02
 -5.2254550e-02   1.0215782e-01
  3.1723294e-01   8.9628816e-02
 -3.9906201e-01   4.5119774e-02
 -2.8838423e-01   1.1155556e-01
  1.2250941e-01   1.2102307e-01
 -1.2725373e-01   1.2422031e-01
 -6.6312842e-02   5.8357261e-02
 -2.6671737e-01   7.5112559e-02
 -4.4142467e-01   5.7857666e-02
  1.1492600e-01   1.1926433e-01
  2.3349604e-01   3.2702796e-02
  7.8449160e-02   1.1423850e-01
  2.0380250e-01   3.7464272e-02
 -1.2899271e-01   9.8687589e-02
 -2.5181061e-01   6.5444678e-02
 -3.1075072e-01   1.9733283e-01
