5
Time=100.00000000 pbc="T T T" Lattice="5.91177140 0.00000000 0.00000000 0.00000000 5.91525465 0.00000000 0.00000000 0.00000000 5.91301202" energy=-178.65591049 virial="0.06209668 0.04351025 -0.12160359 0.04351025 0.43711257 -0.01129504 -0.12160359 -0.01129504 0.60753913" stress="0.00073788 0.00021042 -0.00058810 0.00021042 0.00255153 -0.00005462 -0.00058810 -0.00005462 0.00337574" Properties=species:S:1:pos:R:3
Br 3.03576240 2.95306593 -0.01593914
Br 2.87607739 -0.13561763 3.07080726
Br 0.06299532 3.00887927 3.28935529
Cs 0.12584541 0.03207345 -0.04023825
Pb 2.85084427 2.97134785 2.81602516
5
Time=200.00000000 pbc="T T T" Lattice="5.89389751 0.00000000 0.00000000 0.00000000 5.91910083 0.00000000 0.00000000 0.00000000 5.92790681" energy=-178.53815079 virial="-0.67814979 0.08495279 -0.69147210 0.08495279 0.65405695 -0.06618839 -0.69147210 -0.06618839 0.59647464" stress="-0.00282086 0.00041079 -0.00334362 0.00041079 0.00362104 -0.00032005 -0.00334362 -0.00032005 0.00334260" Properties=species:S:1:pos:R:3
Br 3.09580813 2.91013377 5.78317841
Br 2.78143402 6.00902485 3.13192402
Br 5.71340345 3.01979296 3.55997205
Cs 0.27374670 0.06803583 5.80870523
Pb 2.84738600 2.87705690 2.80160359
5
Time=300.00000000 pbc="T T T" Lattice="5.89988113 0.00000000 0.00000000 0.00000000 5.95975409 0.00000000 0.00000000 0.00000000 5.95690802" energy=-178.63418198 virial="0.33423275 0.22258145 -0.54498464 0.22258145 0.29190572 -0.12059065 -0.54498464 -0.12059065 0.74596604" stress="0.00206884 0.00106267 -0.00260193 0.00106267 0.00186676 -0.00057574 -0.00260193 -0.00057574 0.00403459" Properties=species:S:1:pos:R:3
Br 2.95390821 2.85401993 5.99486761
Br 2.64963550 6.01850296 2.97953598
Br 5.67604273 3.03382088 3.44692925
Cs 0.44481400 0.11517844 5.71862655
Pb 2.86522011 2.91107418 2.93557893
5
Time=400.00000000 pbc="T T T" Lattice="5.91554165 0.00000000 0.00000000 0.00000000 5.96733707 0.00000000 0.00000000 0.00000000 5.97088615" energy=-178.62412643 virial="0.99257588 0.30296969 -0.15470530 0.30296969 0.64280958 -0.06282307 -0.15470530 -0.06282307 0.03644269" stress="0.00519987 0.00143744 -0.00073400 0.00143744 0.00354041 -0.00029806 -0.00073400 -0.00029806 0.00066350" Properties=species:S:1:pos:R:3
Br 2.79577320 2.85653038 6.12942114
Br 2.66059255 5.77964494 2.75772053
Br 5.92675063 3.03510296 3.19999398
Cs 0.43908429 0.10626062 5.73574993
Pb 2.84887920 3.01708440 3.08021032
5
Time=500.00000000 pbc="T T T" Lattice="5.93570691 0.00000000 0.00000000 0.00000000 5.96163904 0.00000000 0.00000000 0.00000000 5.97005293" energy=-178.61076355 virial="-0.30150905 0.07948149 -0.02906168 0.07948149 -1.42077997 -0.02287658 -0.02906168 -0.02287658 -0.00924232" stress="-0.00091733 0.00037622 -0.00013756 0.00037622 -0.00621538 -0.00010829 -0.00013756 -0.00010829 0.00046611" Properties=species:S:1:pos:R:3
Br 2.69409626 2.91172321 0.08411253
Br 2.82478300 5.92752282 2.58130037
Br -0.00236799 2.96470399 2.90809368
Cs 0.30232132 0.02958804 5.80389665
Pb 2.93559118 3.00785802 3.24452799
5
Time=600.00000000 pbc="T T T" Lattice="5.93491865 0.00000000 0.00000000 0.00000000 5.93934545 0.00000000 0.00000000 0.00000000 5.97224328" energy=-178.58403397 virial="0.36887274 0.04839954 -0.10984468 0.04839954 0.22089357 -0.04712060 -0.10984468 -0.04712060 -0.48543333" stress="0.00228433 0.00022991 -0.00052178 0.00022991 0.00158140 -0.00022383 -0.00052178 -0.00022383 -0.00177378" Properties=species:S:1:pos:R:3
Br 2.66269546 3.00631688 0.07990019
Br 3.06824561 6.14239862 2.72244121
Br -0.14246699 2.87934603 2.74903077
Cs 0.10413165 -0.06950539 5.92370206
Pb 3.03426745 2.95665309 3.17956120
5
Time=700.00000000 pbc="T T T" Lattice="5.93578383 0.00000000 0.00000000 0.00000000 5.94160075 0.00000000 0.00000000 0.00000000 5.95443883" energy=-178.71449280 virial="-0.35721455 0.03696300 -0.21632437 0.03696300 -0.48055384 -0.07694711 -0.21632437 -0.07694711 -0.54317358" stress="-0.00114706 0.00017601 -0.00103010 0.00017601 -0.00173438 -0.00036641 -0.00103010 -0.00036641 -0.00203256" Properties=species:S:1:pos:R:3
Br 2.70533260 3.13082407 0.07812748
Br 3.24425817 0.02558797 2.99264144
Br 5.97926759 2.89298209 2.72193342
Cs -0.08520553 5.80038731 6.05840398
Pb 3.00045236 3.01981058 2.97290406
5
Time=800.00000000 pbc="T T T" Lattice="5.94657212 0.00000000 0.00000000 0.00000000 5.94197027 0.00000000 0.00000000 0.00000000 5.95325329" energy=-178.61869431 virial="0.59077301 0.20052847 -0.16338222 0.20052847 -0.17821823 -0.37464635 -0.16338222 -0.37464635 0.04218400" stress="0.00338198 0.00095329 -0.00077670 0.00095329 -0.00027373 -0.00178103 -0.00077670 -0.00178103 0.00077404" Properties=species:S:1:pos:R:3
Br 2.88316737 3.22072710 -0.14836878
Br 3.34914194 5.82249758 3.28020888
Br 0.14486271 2.94310946 2.81359654
Cs 5.69373566 5.75774775 0.24905806
Pb 2.96940907 3.04966525 2.81988633
5
Time=900.00000000 pbc="T T T" Lattice="5.95850367 0.00000000 0.00000000 0.00000000 5.92578256 0.00000000 0.00000000 0.00000000 5.95470700" energy=-178.50853729 virial="0.50054809 0.47560718 -0.33004502 0.47560718 -0.25658271 -0.16502617 -0.33004502 -0.16502617 -0.03486134" stress="0.00297497 0.00226207 -0.00156975 0.00226207 -0.00062608 -0.00078489 -0.00156975 -0.00078489 0.00042846" Properties=species:S:1:pos:R:3
Br 3.14934649 3.17400907 -0.26509396
Br 3.37259269 6.08043761 3.38376483
Br -0.03578675 2.96872943 2.90717905
Cs 5.54097334 5.72660650 0.39796785
Pb 3.04358973 2.94734292 2.69464741
5
Time=1000.00000000 pbc="T T T" Lattice="5.98522227 0.00000000 0.00000000 0.00000000 5.97225991 0.00000000 0.00000000 0.00000000 5.97960077" energy=-178.51795197 virial="0.36017868 0.09711792 -0.58220195 0.09711792 1.01772013 -0.09307416 -0.58220195 -0.09307416 1.12831554" stress="0.00228986 0.00045437 -0.00272388 0.00045437 0.00536623 -0.00043546 -0.00272388 -0.00043546 0.00588366" Properties=species:S:1:pos:R:3
Br 3.36637626 2.95933544 5.89118402
Br 3.16331922 0.20997848 3.14088052
Br 5.99917794 3.06981491 2.89673992
Cs 5.48042036 5.87811751 0.49706455
Pb 3.10105816 2.94360168 2.68268773
